file 53919 1715785325                                           
version 3
run General-0-20240515-10:32:58-83736
attr configname General
attr datetime 20240515-10:32:58
attr datetimef 20240515-103258
attr experiment General
attr inifile omnetpp.ini
attr iterationvars ""
attr iterationvarsd ""
attr iterationvarsf ""
attr measurement ""
attr network Network
attr processid 83736
attr repetition 0
attr replication #0
attr resultdir results
attr runnumber 0
attr seedset 0
config network Network
config sim-time-limit 200s
config Network.nodeTx.gen.generationInterval exponential(0.1)
config Network.nodeTx.gen.packetByteSize 12500
config Network.queue0.bufferSize 100
config Network.queue1.bufferSize 200
config Network.nodeRx.traRx.bufferSize 200
config Network.nodeTx.traTx.bufferSize 20000000
config Network.queue0.serviceTime exponential(0.001)
config Network.queue1.serviceTime exponential(0.001)

vector 0 Network.nodeTx.gen PacketGen ETV
vector 1 Network.nodeTx.traTx "Buffer size" ETV
vector 2 Network.queue0 bufferSize ETV
vector 3 Network.nodeRx.traRx bufferSize ETV
vector 4 Network.nodeRx.sink Delay ETV
vector 5 Network.nodeRx.sink "Delivered Packets" ETV
0	1104 496 1 143 0.079587450457 2.46202575212 22 1 22 253 3795
1	1600 483 2 144 0.079587450457 2.46202575212 22 1 3 28 42
2	2083 459 7 148 0.179687450457 2.492874560922 21 1 9 93 549
3	2542 492 15 140 0.379787450457 2.379787450457 22 0 1 11 11
4	3034 379 19 145 0.479787450457 2.479787450457 11 0.4002 1.188075676615 8.458717213047 7.1159279704987
5	3413 248 19 145 0.479787450457 2.479787450457 11 1 11 66 506
0	3661 310 149 218 2.537293163451 3.565994068901 13 23 35 377 11115
1	3971 297 150 219 2.537293163451 3.565994068901 13 1 4 29 83
2	4268 286 155 230 2.592874560922 3.777274241377 12 9 15 144 1766
3	4554 276 152 224 2.579787450457 3.579787450457 12 0 1 6 6
4	4830 216 158 227 2.679787450457 3.679787450457 6 1.339562860243 1.818504117528 9.598128418939 15.49384814177
5	5046 144 158 227 2.679787450457 3.679787450457 6 12 17 87 1279
0	5190 98vector 6 Network.queue1 bufferSize ETV
0	6575 8819 304 2528 4.839355407298 38.616881452644 336 41 376 70056 17767736
1	15394 8236 305 2525 4.839355407298 38.477913746266 335 1 39 2400 32506
2	23630 7254 312 2500 4.939455407298 37.622516925743 296 1 1 296 296
3	30884 12105 303 2527 4.679787450457 38.479787450457 466 16 162 42441 4752425
4	42989 6419 307 2526 4.879787450457 38.479787450457 169 2.342494287006 19.061180858521 1789.8863330879 22975.333765237
5	49408 4410 307 2526 4.879787450457 38.479787450457 169 23 191 18083 2337101
6	53818 100 2376 2403 34.422876925743 34.722876925743 4 1 1 4 4

48844 131 1 33 1153 16539
2	16678 2679 492 1180 7.779807835223 18.379807835223 107 29 85 5972 359218
3	19357 3196 490 1312 7.779787450457 20.781067450457 132 0 1 66 66
4	22553 2413 494 1306 7.879787450457 20.681067450457 65 3.640432043159 10.581508025267 444.93337255484 3328.5242181114
5	24966 1642 494 1306 7.879787450457 20.681067450457 65 38 102 4550 341380
6	26608 100 1165 1190 18.180527450457 18.381487450457 4 1 1 4 4
0	26708 4837 1313 2351 20.799137664192 39.65741088722 180 208 387 53550 16417110
1	31545 4714 1314 2352 20.799137664192 39.65741088722 180 34 122 14514 1294206
2	36259 2522 1338 2354 21.379807835223 39.679807835223 97 54 84 6435 432359
3	38781 4700 1322 2350 20.981067450457 39.582027450457 188 0 1 94 94
4	43481 3659 1317 2344 20.881067450457 39.482027450457 94 10.458444144846 19.823851730941 1396.3012355776 21405.247044453
5	47140 2538 1317 2344 20.881067450457 39.482027450457 94 103 196 14053 2170131
6	49678 75 1818 1838 29.581807450457 29.782447450457 3 1 1 3 3

