version 3
run General-0-20240515-10:32:58-83736
attr configname General
attr datetime 20240515-10:32:58
attr datetimef 20240515-103258
attr experiment General
attr inifile omnetpp.ini
attr iterationvars ""
attr iterationvarsd ""
attr iterationvarsf ""
attr measurement ""
attr network Network
attr processid 83736
attr repetition 0
attr replication #0
attr resultdir results
attr runnumber 0
attr seedset 0
config network Network
config sim-time-limit 200s
config Network.nodeTx.gen.generationInterval exponential(0.1)
config Network.nodeTx.gen.packetByteSize 12500
config Network.queue0.bufferSize 100
config Network.queue1.bufferSize 200
config Network.nodeRx.traRx.bufferSize 200
config Network.nodeTx.traTx.bufferSize 20000000
config Network.queue0.serviceTime exponential(0.001)
config Network.queue1.serviceTime exponential(0.001)

vector 0 Network.nodeTx.gen PacketGen ETV
vector 1 Network.nodeTx.traTx "Buffer size" ETV
vector 2 Network.queue0 bufferSize ETV
vector 3 Network.nodeRx.traRx bufferSize ETV
vector 4 Network.nodeRx.sink Delay ETV
vector 5 Network.nodeRx.sink "Delivered Packets" ETV
0	1	0.079587450457	1
0	4	0.169443489305	2
0	11	0.29503656511	3
0	21	0.480996986317	4
0	24	0.573319299464	5
0	35	0.768473833052	6
0	41	0.84719394705	7
0	52	1.03509035247	8
0	57	1.090195201137	9
0	64	1.187895843776	10
0	70	1.291711773842	11
0	74	1.340224590214	12
0	79	1.397776509902	13
0	81	1.433092423816	14
0	94	1.65544486602	15
0	96	1.661283332929	16
0	114	1.992774560922	17
0	117	2.024610175006	18
0	119	2.072970385501	19
0	125	2.137915020326	20
0	136	2.294804632088	21
0	143	2.46202575212	22
1	2	0.079587450457	1
1	5	0.169443489305	1
1	12	0.29503656511	1
1	22	0.480996986317	1
1	25	0.573319299464	1
1	36	0.768473833052	1
1	42	0.84719394705	1
1	53	1.03509035247	1
1	58	1.090195201137	1
1	65	1.187895843776	1
1	71	1.291711773842	1
1	75	1.340224590214	1
1	80	1.397776509902	2
1	82	1.433092423816	3
1	95	1.65544486602	1
1	97	1.661283332929	2
1	115	1.992774560922	1
1	118	2.024610175006	1
1	120	2.072970385501	2
1	126	2.137915020326	2
1	137	2.294804632088	1
1	144	2.46202575212	1
2	7	0.179687450457	1
2	10	0.279687450457	1
2	18	0.39513656511	1
2	30	0.581096986317	1
2	34	0.681096986317	2
2	44	0.868573833052	2
2	48	0.968573833052	3
2	60	1.13519035247	3
2	67	1.23519035247	3
2	73	1.33519035247	4
2	84	1.43519035247	4
2	88	1.53519035247	5
2	93	1.63519035247	5
2	101	1.73519035247	6
2	106	1.83519035247	6
2	110	1.93519035247	7
2	124	2.092874560922	7
2	131	2.192874560922	7
2	135	2.292874560922	8
2	142	2.392874560922	8
2	148	2.492874560922	9
3	15	0.379787450457	1
3	16	0.379787450457	0
3	27	0.579787450457	1
3	28	0.579787450457	0
3	39	0.779787450457	1
3	40	0.779787450457	0
3	50	0.979787450457	1
3	51	0.979787450457	0
3	62	1.179787450457	1
3	63	1.179787450457	0
3	77	1.379787450457	1
3	78	1.379787450457	0
3	90	1.579787450457	1
3	91	1.579787450457	0
3	103	1.779787450457	1
3	104	1.779787450457	0
3	112	1.979787450457	1
3	113	1.979787450457	0
3	128	2.179787450457	1
3	129	2.179787450457	0
3	139	2.379787450457	1
3	140	2.379787450457	0
4	19	0.479787450457	0.4002
4	31	0.679787450457	0.510343961152
4	45	0.879787450457	0.584750885347
4	55	1.079787450457	0.59879046414
4	68	1.279787450457	0.706468150993
4	85	1.479787450457	0.711313617405
4	98	1.679787450457	0.832593503407
4	107	1.879787450457	0.844697097987
4	121	2.079787450457	0.98959224932
4	132	2.279787450457	1.091891606681
4	145	2.479787450457	1.188075676615
5	19	0.479787450457	1
5	31	0.679787450457	2
5	45	0.879787450457	3
5	55	1.079787450457	4
5	68	1.279787450457	5
5	85	1.479787450457	6
5	98	1.679787450457	7
5	107	1.879787450457	8
5	121	2.079787450457	9
5	132	2.279787450457	10
5	145	2.479787450457	11
0	149	2.537293163451	23
0	156	2.602681420173	24
0	160	2.686624705463	25
0	164	2.736511906365	26
0	180	2.99633731495	27
0	187	3.177174241377	28
0	193	3.184542776924	29
0	195	3.225700576548	30
0	197	3.23481667916	31
0	203	3.339277929991	32
0	205	3.341320488831	33
0	212	3.387245302557	34
0	218	3.565994068901	35
1	150	2.537293163451	1
1	157	2.602681420173	1
1	161	2.686624705463	2
1	165	2.736511906365	2
1	181	2.99633731495	1
1	188	3.177174241377	1
1	194	3.184542776924	1
1	196	3.225700576548	2
1	198	3.23481667916	3
1	204	3.339277929991	3
1	206	3.341320488831	4
1	213	3.387245302557	4
1	219	3.565994068901	4
2	155	2.592874560922	9
2	163	2.692874560922	10
2	170	2.792874560922	10
2	174	2.892874560922	11
2	179	2.992874560922	11
2	186	3.09643731495	12
2	200	3.277274241377	12
2	208	3.377274241377	13
2	215	3.477274241377	13
2	221	3.577274241377	14
2	226	3.677274241377	14
2	230	3.777274241377	15
3	152	2.579787450457	1
3	153	2.579787450457	0
3	167	2.779787450457	1
3	168	2.779787450457	0
3	176	2.979787450457	1
3	177	2.979787450457	0
3	191	3.179787450457	1
3	192	3.179787450457	0
3	210	3.379787450457	1
3	211	3.379787450457	0
3	223	3.579787450457	1
3	224	3.579787450457	0
4	158	2.679787450457	1.339562860243
4	171	2.879787450457	1.482010940555
4	183	3.079787450457	1.646695026641
4	201	3.279787450457	1.624342584437
4	216	3.479787450457	1.818504117528
4	227	3.679787450457	1.687012889535
5	158	2.679787450457	12
5	171	2.879787450457	13
5	183	3.079787450457	14
5	201	3.279787450457	15
5	216	3.479787450457	16
5	227	3.679787450457	17
0	238	3.881011061769	36
0	245	4.031589487633	37
0	247	4.046712572999	38
0	258	4.250743998793	39
0	269	4.454833220384	40
0	284	4.839355407298	41
0	289	4.903526324566	42
0	298	5.064050280272	43
0	308	5.225450487761	44
0	313	5.287343433724	45
0	317	5.360839875843	46
0	326	5.512493473242	47
0	335	5.626087367413	48
0	338	5.638674808357	49
0	344	5.766197578579	50
0	351	5.868340766014	51
0	357	5.955572885518	52
0	359	5.971045853568	53
0	366	6.048129319415	54
0	381	6.337571367214	55
0	389	6.479707835223	56
0	394	6.553490564399	57
0	396	6.564685180462	58
0	403	6.618241752485	59
0	409	6.682411222688	60
0	411	6.713139257903	61
0	413	6.733759586106	62
0	424	6.882585068681	63
0	431	7.016114087143	64
0	433	7.077022329461	65
0	439	7.101427178535	66
0	446	7.185460649096	67
0	448	7.199988451825	68
0	450	7.201885308745	69
0	452	7.241062389813	70
0	458	7.33720048372	71
0	460	7.353414132665	72
0	467	7.448113800382	73
0	469	7.473257993589	74
0	475	7.569212791326	75
0	482	7.618068496257	76
1	239	3.881011061769	1
1	246	4.031589487633	1
1	248	4.046712572999	2
1	259	4.250743998793	1
1	270	4.454833220384	1
1	285	4.839355407298	1
1	290	4.903526324566	1
1	299	5.064050280272	1
1	309	5.225450487761	1
1	314	5.287343433724	1
1	318	5.360839875843	1
1	327	5.512493473242	1
1	336	5.626087367413	1
1	339	5.638674808357	1
1	345	5.766197578579	1
1	352	5.8683407660vector 6 Network.queue1 bufferSize ETV
0	304	4.839355407298	41
0	309	4.903526324566	42
0	318	5.064050280272	43
0	328	5.225450487761	44
0	335	5.287343433724	45
0	340	5.360839875843	46
0	348	5.512493473242	47
0	358	5.626087367413	48
0	361	5.638674808357	49
0	370	5.766197578579	50
0	376	5.868340766014	51
0	384	5.955572885518	52
0	386	5.971045853568	53
0	392	6.048129319415	54
0	410	6.337571367214	55
0	418	6.479707835223	56
0	425	6.553490564399	57
0	427	6.564685180462	58
0	432	6.618241752485	59
0	440	6.682411222688	60
0	442	6.713139257903	61
0	444	6.733759586106	62
0	456	6.882585068681	63
0	462	7.016114087143	64
0	464	7.077022329461	65
0	472	7.101427178535	66
0	478	7.185460649096	67
0	480	7.199988451825	68
0	482	7.201885308745	69
0	484	7.241062389813	70
0	492	7.33720048372	71
0	494	7.353414132665	72
0	500	7.448113800382	73
0	502	7.473257993589	74
0	510	7.569212791326	75
0	516	7.618068496257	76
0	534	7.905859998385	77
0	546	8.138751335806	78
0	552	8.253265231276	79
0	560	8.313039838958	80
0	562	8.357591688463	81
0	568	8.452541146813	82
0	576	8.509994387487	83
0	588	8.742629493656	84
0	594	8.862240273602	85
0	596	8.87269639618	86
0	598	8.878907925227	87
0	620	9.228929293672	88
0	628	9.338820540427	89
0	634	9.444703953576	90
0	642	9.555763698145	91
0	644	9.574506304747	92
0	650	9.598126975355	93
0	652	9.642467378217	94
0	654	9.65627024706	95
0	666	9.795174516039	96
0	668	9.833070712467	97
0	676	9.926676868444	98
0	678	9.971887074466	99
0	684	10.011198330196	100
0	692	10.095641109549	101
0	694	10.09955942519	102
0	696	10.157291856271	103
0	702	10.257878956788	104
0	730	10.703328641406	105
0	746	11.022623305611	106
0	748	11.033386816427	107
0	756	11.139169457762	108
0	758	11.16259960964	109
0	764	11.263401534182	110
0	772	11.280992888725	111
0	798	11.817002923749	112
0	806	11.922877195258	113
0	812	12.010068780621	114
0	814	12.039276833948	115
0	822	12.092783301656	116
0	824	12.155577459755	117
0	830	12.219955559915	118
0	832	12.247983260763	119
0	840	12.34566966817	120
0	842	12.362982413785	121
0	848	12.404232536777	122
0	850	12.415928077756	123
0	858	12.528244907909	124
0	864	12.635052127624	125
0	866	12.673207711961	126
0	874	12.688078938886	127
0	880	12.838742472213	128
0	882	12.860630531864	129
0	900	13.159349521049	130
0	906	13.205350916823	131
0	914	13.313977854911	132
0	926	13.486011020683	133
0	928	13.487377478526	134
0	930	13.497591966678	135
0	936	13.595102160094	136
0	944	13.777084052022	137
0	956	13.889065488597	138
0	958	13.899168966128	139
0	974	14.256527803362	140
0	996	14.63143094932	141
0	1008	14.841963079399	142
0	1016	14.905196739039	143
0	1018	14.976455098372	144
0	1040	15.352647826822	145
0	1042	15.358380519464	146
0	1048	15.451228369154	147
0	1056	15.511223057818	148
0	1062	15.645647585033	149
0	1064	15.647666597848	150
0	1066	15.651664227754	151
0	1074	15.709952066641	152
0	1076	15.743193090737	153
0	1098	16.132350103022	154
0	1100	16.145155779553	155
0	1106	16.189697725745	156
0	1108	16.224815334683	157
0	1116	16.290379963119	158
0	1118	16.303018826762	159
0	1124	16.419706179417	160
0	1126	16.457976274303	161
0	1138	16.670399994003	162
0	1146	16.723888431579	163
0	1158	16.974279609888	164
0	1164	16.980909350036	165
0	1166	17.005348894844	166
0	1174	17.123267847551	167
0	1180	17.206552199158	168
0	1188	17.290161952355	169
0	1200	17.490486004606	170
0	1202	17.521327488616	171
0	1208	17.592452282338	172
0	1210	17.666528177383	173
0	1228	17.915086413081	174
0	1230	17.924951443923	175
0	1242	18.178981894719	176
0	1248	18.264771458826	177
0	1250	18.27344850706	178
0	1268	18.538374099928	179
0	1270	18.570908141481	180
0	1276	18.609264162891	181
0	1278	18.610204237957	182
0	1286	18.720288828966	183
0	1298	18.905021594066	184
0	1300	18.919154665422	185
0	1306	19.02333273084	186
0	1314	19.149326111851	187
0	1326	19.333454359	188
0	1328	19.367619775703	189
0	1334	19.398371548079	190
0	1336	19.418606591936	191
0	1338	19.469326604262	192
0	1346	19.557639508458	193
0	1352	19.638119248438	194
0	1354	19.640150494318	195
0	1356	19.658175719516	196
0	1368	19.834749826757	197
0	1376	19.880922916361	198
0	1378	19.88139357041	199
0	1380	19.897227721033	200
0	1386	20.01049113523	201
0	1394	20.094799438445	202
0	1396	20.12627160453	203
0	1402	20.247922469874	204
0	1414	20.380798257249	205
0	1416	20.414832931073	206
0	1434	20.742347248844	207
0	1440	20.799137664192	208
0	1442	20.827739761443	209
0	1450	20.968842202372	210
0	1456	21.054681499155	211
0	1464	21.105115879814	212
0	1470	21.194774966893	213
0	1482	21.421148324479	214
0	1490	21.506070405635	215
0	1496	21.607936278637	216
0	1498	21.633178277926	217
0	1510	21.855328967773	218
0	1528	22.160557133461	219
0	1534	22.274517929814	220
0	1542	22.333780332559	221
0	1548	22.393418271992	222
0	1560	22.580764259978	223
0	1578	22.965064918302	224
0	1590	23.085288775027	225
0	1592	23.097641439763	226
0	1594	23.13294345309	227
0	1600	23.278625308946	228
0	1612	23.446717529401	229
0	1620	23.499789779063	230
0	1622	23.550291653838	231
0	1628	23.662819855522	232
0	1640	23.875769795129	233
0	1648	23.904510842736	234
0	1654	23.991564425369	235
0	1656	24.02913830961	236
0	1668	24.242621354608	237
0	1686	24.579058399913	238
0	1698	24.696996693277	239
0	1704	24.785782834321	240
0	1712	24.914973761201	241
0	1718	25.022757249615	242
0	1726	25.092337195705	243
0	1728	25.168523972835	244
0	1748	25.481070808601	245
0	1751	25.507276532769	246
0	1756	25.610556233834	247
0	1758	25.66078731366	248
0	1766	25.715926912673	249
0	1772	25.812372269222	250
0	1780	25.905612557263	251
0	1782	25.970023028095	252
0	1784	25.97196100623	253
0	1790	26.035473777793	254
0	1792	26.07136649938	255
0	1804	26.197270851106	256
0	1812	26.305202870972	257
0	1814	26.33916934423	258
0	1816	26.3734293067	259
0	1822	26.421792875359	260
0	1830	26.518030380936	261
0	1836	26.65632830159	262
0	1844	26.712324408597	263
0	1856	26.923069169092	264
0	1858	26.937626566937	265
0	1860	26.948481276786	266
0	1866	26.983903690011	267
0	1868	26.993595965469	268
0	1870	27.077984812728	269
0	1878	27.121687614105	270
0	1884	27.211060521936	271
0	1892	27.291315720512	272
0	1894	27.376723694076	273
0	1896	27.380144035912	274
0	1908	27.48604497445	275
0	1924	27.833298522378	276
0	1932	27.938883483244	277
0	1934	27.977596492459	278
0	1940	28.034057542571	279
0	1942	28.059065692069	280
0	1960	28.285929091338	281
0	1962	28.301158453863	282
0	1964	28.346975742259	283
0	1966	28.357207803744	284
0	1972	28.414453958887	285
0	1994	28.828234934938	286
0	2006	29.050726400661	287
0	2010	29.080882991983	288
0	2020	29.244972749776	289
0	2028	29.321980435731	290
0	2034	29.443682385265	291
0	2042	29.503089735097	292
0	2044	29.51365099946	293
0	2046	29.52413918302	294
0	2058	29.776067396028	295
0	2064	29.819501961622	296
0	2072	29.944762714113	297
0	2078	30.008108975885	298
0	2116	30.684648027879	299
0	2122	30.868621306387	300
0	2130	30.884808315058	301
0	2142	31.119826044033	302
0	2154	31.322416925743	303
0	2157	31.326245217031	304
0	2159	31.343977774546	305
0	2163	31.414969567268	306
0	2170	31.51056620966	307
0	2176	31.528820069848	308
0	2178	31.542038440809	309
0	2186	31.69302078637	310
0	2198	31.881413675029	311
0	2210	32.081612324582	312
0	2220	32.246284234715	313
0	2224	32.299284522529	314
0	2230	32.383472618702	315
0	2232	32.398551719721	316
0	2238	32.45083872273	317
0	2240	32.454217401285	318
0	2242	32.461384939716	319
0	2264	32.866369623596	320
0	2272	32.985913480224	321
0	2278	33.032640736865	322
0	2282	33.09307064405	323
0	2288	33.147556356864	324
0	2294	33.275589777245	325
0	2298	33.280781032463	326
0	2310	33.482058306084	327
0	2316	33.527549490563	328
0	2334	33.898545549753	329
0	2336	33.900222326352	330
0	2348	34.093880050101	331
0	2350	34.120112981018	332
0	2352	34.12129130421	333
0	2362	34.266070712409	334
0	2366	34.310695994461	335
0	2390	34.599157169671	336
0	2407	34.730087006073	337
0	2409	34.868716141275	338
0	2413	34.887545638797	339
0	2415	34.929006893063	340
0	2417	35.002620003062	341
0	2419	35.069866054745	342
0	2421	35.075453060034	343
0	2425	35.116850952301	344
0	2427	35.139164873111	345
0	2429	35.158947823857	346
0	2431	35.160817370899	347
0	2433	35.179569266019	348
0	2437	35.33741053823	349
0	2439	35.399670272628	350
0	2441	35.425020843142	351
0	2445	35.632623949186	352
0	2447	35.674989659322	353
0	2453	35.963444088163	354
0	2457	36.226665974418	355
0	2461	36.32037984619	356
0	2463	36.442259526524	357
0	2467	36.533055929256	358
0	2469	36.536291609721	359
0	2473	36.689374732348	360
0	2475	36.707370466503	361
0	2477	36.776690443457	362
0	2479	36.873838659266	363
0	2481	36.879006949846	364
0	2485	36.965099313514	365
0	2489	37.085196404168	366
0	2491	37.112363211202	367
0	2498	37.600276500001	368
0	2506	37.872411325592	369
0	2510	37.903508106089	370
0	2512	37.998691076843	371
0	2516	38.112350726369	372
0	2518	38.189058691826	373
0	2522	38.388775888575	374
0	2524	38.477913746266	375
0	2528	38.616881452644	376
1	305	4.839355407298	1
1	310	4.903526324566	1
1	319	5.064050280272	1
1	329	5.225450487761	1
1	336	5.287343433724	1
1	341	5.360839875843	1
1	349	5.512493473242	1
1	359	5.626087367413	1
1	362	5.638674808357	1
1	371	5.766197578579	1
1	377	5.868340766014	1
1	385	5.955572885518	1
1	387	5.971045853568	2
1	393	6.048129319415	2
1	411	6.337571367214	1
1	419	6.479707835223	1
1	426	6.553490564399	1
1	428	6.564685180462	2
1	433	6.618241752485	2
1	441	6.682411222688	2
1	443	6.713139257903	3
1	445	6.733759586106	4
1	457	6.882585068681	3
1	463	7.016114087143	3
1	465	7.077022329461	4
1	473	7.101427178535	4
1	479	7.185460649096	4
1	481	7.199988451825	5
1	483	7.201885308745	6
1	485	7.241062389813	7
1	493	7.33720048372	7
1	495	7.353414132665	8
1	501	7.448113800382	8
1	503	7.473257993589	9
1	511	7.569212791326	9
1	517	7.618068496257	9
1	535	7.905859998385	7
1	547	8.138751335806	6
1	553	8.253265231276	6
1	561	8.313039838958	6
1	563	8.357591688463	7
1	569	8.452541146813	7
1	577	8.509994387487	7
1	589	8.742629493656	6
1	595	8.862240273602	6
1	597	8.87269639618	7
1	599	8.878907925227	8
1	621	9.228929293672	5
1	629	9.338820540427	5
1	635	9.444703953576	5
1	643	9.555763698145	5
1	645	9.574506304747	6
1	651	9.598126975355	6
1	653	9.642467378217	7
1	655	9.65627024706	8
1	667	9.795174516039	7
1	669	9.833070712467	8
1	677	9.926676868444	8
1	679	9.971887074466	9
1	685	10.011198330196	9
1	693	10.095641109549	9
1	695	10.09955942519	10
1	697	10.157291856271	11
1	703	10.257878956788	11
1	731	10.703328641406	7
1	747	11.022623305611	5
1	749	11.033386816427	6
1	757	11.139169457762	6
1	759	11.16259960964	7
1	765	11.263401534182	7
1	773	11.280992888725	7
1	799	11.817002923749	3
1	807	11.922877195258	3
1	813	12.010068780621	3
1	815	12.039276833948	4
1	823	12.092783301656	4
1	825	12.155577459755	5
1	831	12.219955559915	5
1	833	12.247983260763	6
1	841	12.34566966817	6
1	843	12.362982413785	7
1	849	12.404232536777	7
1	851	12.415928077756	8
1	859	12.528244907909	8
1	865	12.635052127624	8
1	867	12.673207711961	9
1	875	12.688078938886	9
1	881	12.838742472213	9
1	883	12.860630531864	10
1	901	13.159349521049	8
1	907	13.205350916823	8
1	915	13.313977854911	8
1	927	13.486011020683	7
1	929	13.487377478526	8
1	931	13.497591966678	9
1	937	13.595102160094	9
1	945	13.777084052022	9
1	957	13.889065488597	8
1	959	13.899168966128	9
1	975	14.256527803362	7
1	997	14.63143094932	4
1	1009	14.841963079399	3
1	1017	14.905196739039	3
1	1019	14.976455098372	4
1	1041	15.352647826822	1
1	1043	15.358380519464	2
1	1049	15.451228369154	2
1	1057	15.511223057818	2
1	1063	15.645647585033	2
1	1065	15.647666597848	3
1	1067	15.651664227754	4
1	1075	15.709952066641	4
1	1077	15.743193090737	5
1	1099	16.132350103022	2
1	1101	16.145155779553	3
1	1107	16.189697725745	3
1	1109	16.224815334683	4
1	1117	16.290379963119	4
1	1119	16.303018826762	5
1	1125	16.419706179417	5
1	1127	16.457976274303	6
1	1139	16.670399994003	5
1	1147	16.723888431579	5
1	1159	16.974279609888	4
1	1165	16.980909350036	4
1	1167	17.005348894844	5
1	1175	17.123267847551	5
1	1181	17.206552199158	5
1	1189	17.290161952355	5
1	1201	17.490486004606	4
1	1203	17.521327488616	5
1	1209	17.592452282338	5
1	1211	17.666528177383	6
1	1229	17.915086413081	4
1	1231	17.924951443923	5
1	1243	18.178981894719	4
1	1249	18.264771458826	4
1	1251	18.27344850706	5
1	1269	18.538374099928	3
1	1271	18.570908141481	4
1	1277	18.609264162891	4
1	1279	18.610204237957	5
1	1287	18.720288828966	5
1	1299	18.905021594066	4
1	1301	18.919154665422	5
1	1307	19.02333273084	5
1	1315	19.149326111851	5
1	1327	19.333454359	4
1	1329	19.367619775703	5
1	1335	19.398371548079	5
1	1337	19.418606591936	6
1	1339	19.469326604262	7
1	1347	19.557639508458	7
1	1353	19.638119248438	7
1	1355	19.640150494318	8
1	1357	19.658175719516	9
1	1369	19.834749826757	8
1	1377	19.880922916361	8
1	1379	19.88139357041	9
1	1381	19.897227721033	10
1	1387	20.01049113523	10
1	1395	20.094799438445	10
1	1397	20.12627160453	11
1	1403	20.247922469874	11
1	1415	20.380798257249	10
1	1417	20.414832931073	11
1	1435	20.742347248844	9
1	1441	20.799137664192	9
1	1443	20.827739761443	10
1	1451	20.968842202372	10
1	1457	21.054681499155	10
1	1465	21.105115879814	10
1	1471	21.194774966893	10
1	1483	21.421148324479	9
1	1491	21.506070405635	9
1	1497	21.607936278637	9
1	1499	21.633178277926	10
1	1511	21.855328967773	9
1	1529	22.160557133461	7
1	1535	22.274517929814	7
1	1543	22.333780332559	7
1	1549	22.393418271992	7
1	1561	22.580764259978	6
1	1579	22.965064918302	4
1	1591	23.085288775027	3
1	1593	23.097641439763	4
1	1595	23.13294345309	5
1	1601	23.278625308946	5
1	1613	23.446717529401	4
1	1621	23.499789779063	4
1	1623	23.550291653838	5
1	1629	23.662819855522	5
1	1641	23.875769795129	4
1	1649	23.904510842736	4
1	1655	23.991564425369	4
1	1657	24.02913830961	5
1	1669	24.242621354608	4
1	1687	24.579058399913	2
1	1699	24.696996693277	1
1	1705	24.785782834321	1
1	1713	24.914973761201	1
1	1719	25.022757249615	1
1	1727	25.092337195705	1
1	1729	25.168523972835	2
1	1749	25.481070808601	1
1	1752	25.507276532769	1
1	1757	25.610556233834	1
1	1759	25.66078731366	2
1	1767	25.715926912673	2
1	1773	25.812372269222	2
1	1781	25.905612557263	2
1	1783	25.970023028095	3
1	1785	25.97196100623	4
1	1791	26.035473777793	4
1	1793	26.07136649938	5
1	1805	26.197270851106	4
1	1813	26.305202870972	4
1	1815	26.33916934423	5
1	1817	26.3734293067	6
1	1823	26.421792875359	6
1	1831	26.518030380936	6
1	1837	26.65632830159	6
1	1845	26.712324408597	6
1	1857	26.923069169092	5
1	1859	26.937626566937	6
1	1861	26.948481276786	7
1	1867	26.983903690011	7
1	1869	26.993595965469	8
1	1871	27.077984812728	9
1	1879	27.121687614105	9
1	1885	27.211060521936	9
1	1893	27.291315720512	9
1	1895	27.376723694076	10
1	1897	27.380144035912	11
1	1909	27.48604497445	10
1	1925	27.833298522378	8
1	1933	27.938883483244	8
1	1935	27.977596492459	9
1	1941	28.034057542571	9
1	1943	28.059065692069	10
1	1961	28.285929091338	8
1	1963	28.301158453863	9
1	1965	28.346975742259	10
1	1967	28.357207803744	11
1	1973	28.414453958887	11
1	1995	28.828234934938	8
1	2007	29.050726400661	7
1	2011	29.080882991983	8
1	2021	29.244972749776	7
1	2029	29.321980435731	7
1	2035	29.443682385265	7
1	2043	29.503089735097	7
1	2045	29.51365099946	8
1	2047	29.52413918302	9
1	2059	29.776067396028	8
1	2065	29.819501961622	8
1	2073	29.944762714113	8
1	2079	30.008108975885	8
1	2117	30.684648027879	2
1	2123	30.868621306387	2
1	2131	30.884808315058	2
1	2143	31.119826044033	1
1	2155	31.322416925743	1
1	2158	31.326245217031	1
1	2160	31.343977774546	2
1	2164	31.414969567268	3
1	2171	31.51056620966	3
1	2177	31.528820069848	3
1	2179	31.542038440809	4
1	2187	31.69302078637	4
1	2199	31.881413675029	3
1	2211	32.081612324582	2
1	2221	32.246284234715	1
1	2225	32.299284522529	2
1	2231	32.383472618702	2
1	2233	32.398551719721	3
1	2239	32.45083872273	3
1	2241	32.454217401285	4
1	2243	32.461384939716	5
1	2265	32.866369623596	2
1	2273	32.985913480224	2
1	2279	33.032640736865	2
1	2283	33.09307064405	3
1	2289	33.147556356864	3
1	2295	33.275589777245	3
1	2299	33.280781032463	4
1	2311	33.482058306084	3
1	2317	33.527549490563	3
1	2335	33.898545549753	1
1	2337	33.900222326352	2
1	2349	34.093880050101	1
1	2351	34.120112981018	2
1	2353	34.12129130421	3
1	2363	34.266070712409	2
1	2367	34.310695994461	3
1	2391	34.599157169671	1
1	2408	34.730087006073	2
1	2410	34.868716141275	3
1	2414	34.887545638797	4
1	2416	34.929006893063	5
1	2418	35.002620003062	6
1	2420	35.069866054745	7
1	2422	35.075453060034	8
1	2426	35.116850952301	9
1	2428	35.139164873111	10
1	2430	35.158947823857	11
1	2432	35.160817370899	12
1	2434	35.179569266019	13
1	2438	35.33741053823	14
1	2440	35.399670272628	15
1	2442	35.425020843142	16
1	2446	35.632623949186	17
1	2448	35.674989659322	18
1	2454	35.963444088163	19
1	2458	36.226665974418	20
1	2462	36.32037984619	21
1	2464	36.442259526524	22
1	2468	36.533055929256	23
1	2470	36.536291609721	24
1	2474	36.689374732348	25
1	2476	36.707370466503	26
1	2478	36.776690443457	27
1	2480	36.873838659266	28
1	2482	36.879006949846	29
1	2486	36.965099313514	30
1	2490	37.085196404168	31
1	2492	37.112363211202	32
1	2499	37.600276500001	32
1	2507	37.872411325592	33
1	2511	37.903508106089	34
1	2513	37.998691076843	35
1	2517	38.112350726369	36
1	2519	38.189058691826	37
1	2523	38.388775888575	38
1	2525	38.477913746266	39
2	312	4.939455407298	1
2	315	5.039455407298	1
2	326	5.164150280272	1
2	338	5.325550487761	1
2	343	5.425550487761	1
2	351	5.525550487761	1
2	355	5.625550487761	1
2	368	5.726187367413	1
2	373	5.826187367413	1
2	381	5.926187367413	1
2	389	6.026187367413	1
2	397	6.126187367413	1
2	401	6.226187367413	1
2	407	6.326187367413	1
2	416	6.437671367214	1
2	430	6.579807835223	1
2	437	6.679807835223	1
2	447	6.779807835223	1
2	453	6.879807835223	1
2	459	6.979807835223	1
2	469	7.079807835223	1
2	475	7.179807835223	1
2	489	7.279807835223	1
2	497	7.379807835223	1
2	507	7.479807835223	1
2	513	7.579807835223	1
2	521	7.679807835223	1
2	525	7.779807835223	1
2	531	7.879807835223	1
2	537	7.979807835223	1
2	543	8.079807835223	1
2	549	8.179807835223	1
2	557	8.279807835223	1
2	565	8.379807835223	1
2	573	8.479807835223	1
2	579	8.579807835223	1
2	585	8.679807835223	1
2	591	8.779807835223	1
2	603	8.879807835223	1
2	607	8.979807835223	1
2	613	9.079807835223	1
2	617	9.179807835223	1
2	625	9.279807835223	1
2	631	9.379807835223	1
2	639	9.479807835223	1
2	647	9.579807835223	1
2	659	9.679807835223	1
2	663	9.779807835223	1
2	673	9.879807835223	1
2	681	9.979807835223	1
2	689	10.079807835223	1
2	699	10.179807835223	1
2	707	10.279807835223	1
2	711	10.379807835223	1
2	717	10.479807835223	1
2	721	10.579807835223	1
2	727	10.679807835223	1
2	733	10.779807835223	1
2	739	10.879807835223	1
2	743	10.979807835223	1
2	753	11.079807835223	1
2	761	11.179807835223	1
2	769	11.279807835223	1
2	775	11.379807835223	1
2	781	11.479807835223	1
2	785	11.579807835223	1
2	791	11.679807835223	1
2	795	11.779807835223	1
2	803	11.879807835223	1
2	809	11.979807835223	1
2	819	12.079807835223	1
2	827	12.179807835223	1
2	837	12.279807835223	1
2	845	12.379807835223	1
2	855	12.479807835223	1
2	861	12.579807835223	1
2	871	12.679807835223	1
2	877	12.779807835223	1
2	887	12.879807835223	1
2	891	12.979807835223	1
2	897	13.079807835223	1
2	903	13.179807835223	1
2	911	13.279807835223	1
2	917	13.379807835223	1
2	923	13.479807835223	1
2	933	13.579807835223	1
2	941	13.679807835223	1
2	947	13.779807835223	1
2	953	13.879807835223	1
2	961	13.979807835223	1
2	967	14.079807835223	1
2	971	14.179807835223	1
2	979	14.279807835223	1
2	983	14.379807835223	1
2	989	14.479807835223	1
2	993	14.579807835223	1
2	1001	14.679807835223	1
2	1005	14.779807835223	1
2	1013	14.879807835223	1
2	1021	14.979807835223	1
2	1027	15.079807835223	1
2	1031	15.179807835223	1
2	1037	15.279807835223	1
2	1045	15.379807835223	1
2	1053	15.479807835223	1
2	1059	15.579807835223	1
2	1071	15.679807835223	1
2	1079	15.779807835223	1
2	1085	15.879807835223	1
2	1089	15.979807835223	1
2	1095	16.079807835223	1
2	1103	16.179807835223	1
2	1113	16.279807835223	1
2	1121	16.379807835223	1
2	1131	16.479807835223	1
2	1135	16.579807835223	1
2	1143	16.679807835223	1
2	1149	16.779807835223	1
2	1155	16.879807835223	1
2	1161	16.979807835223	1
2	1171	17.079807835223	1
2	1177	17.179807835223	1
2	1185	17.279807835223	1
2	1191	17.379807835223	1
2	1197	17.479807835223	1
2	1205	17.579807835223	1
2	1215	17.679807835223	1
2	1219	17.779807835223	1
2	1225	17.879807835223	10	1313	20.799137664192	208
0	1315	20.827739761443	209
0	1319	20.968842202372	210
0	1324	21.054681499155	211
0	1328	21.105115879814	212
0	1333	21.194774966893	213
0	1342	21.421148324479	214
0	1346	21.506070405635	215
0	1351	21.607936278637	216
0	1353	21.633178277926	217
0	1360	21.855328967773	218
0	1369	22.160557133461	219
0	1374	22.274517929814	220
0	1378	22.333780332559	221
0	1383	22.393418271992	222
0	1387	22.580764259978	223
0	1399	22.965064918302	224
0	1406	23.085288775027	225
0	1408	23.097641439763	226
0	1410	23.13294345309	227
0	1415	23.278625308946	228
0	1422	23.446717529401	229
0	1426	23.499789779063	230
0	1428	23.550291653838	231
0	1433	23.662819855522	232
0	1440	23.875769795129	233
0	1444	23.904510842736	234
0	1449	23.991564425369	235
0	1451	24.02913830961	236
0	1458	24.242621354608	237
0	1472	24.579058399913	238
0	1483	24.696996693277	239
0	1490	24.785782834321	240
0	1496	24.914973761201	241
0	1503	25.022757249615	242
0	1509	25.092337195705	243
0	1511	25.168523972835	244
0	1531	25.481070808601	245
0	1533	25.507276532769	246
0	1540	25.610556233834	247
0	1542	25.66078731366	248
0	1548	25.715926912673	249
0	1555	25.812372269222	250
0	1561	25.905612557263	251
0	1563	25.970023028095	252
0	1565	25.97196100623	253
0	1572	26.035473777793	254
0	1574	26.07136649938	255
0	1585	26.197270851106	256
0	1591	26.305202870972	257
0	1593	26.33916934423	258
0	1595	26.3734293067	259
0	1602	26.421792875359	260
0	1608	26.518030380936	261
0	1615	26.65632830159	262
0	1621	26.712324408597	263
0	1632	26.923069169092	264
0	1634	26.937626566937	265
0	1636	26.948481276786	266
0	1643	26.983903690011	267
0	1645	26.993595965469	268
0	1647	27.077984812728	269
0	1653	27.121687614105	270
0	1660	27.211060521936	271
0	1666	27.291315720512	272
0	1668	27.376723694076	273
0	1672	27.380144035912	274
0	1681	27.48604497445	275
0	1697	27.833298522378	276
0	1703	27.938883483244	277
0	1705	27.977596492459	278
0	1712	28.034057542571	279
0	1714	28.059065692069	280
0	1729	28.285929091338	281
0	1731	28.301158453863	282
0	1733	28.346975742259	283
0	1735	28.357207803744	284
0	1742	28.414453958887	285
0	1762	28.828234934938	286
0	1773	29.050726400661	287
0	1777	29.080882991983	288
0	1786	29.244972749776	289
0	1792	29.321980435731	290
0	1799	29.443682385265	291
0	1805	29.503089735097	292
0	1807	29.51365099946	293
0	1809	29.52413918302	294
0	1826	29.776067396028	295
0	1843	29.819501961622	296
0	1847	29.944762714113	297
0	1852	30.008108975885	298
0	1871	30.684648027879	299
0	1876	30.868621306387	300
0	1880	30.884808315058	301
0	1887	31.119826044033	302
0	1894	31.322416925743	303
0	1896	31.326245217031	304
0	1898	31.343977774546	305
0	1903	31.414969567268	306
0	1907	31.51056620966	307
0	1909	31.528820069848	308
0	1911	31.542038440809	309
0	1918	31.69302078637	310
0	1923	31.881413675029	311
0	1930	32.081612324582	312
0	1937	32.246284234715	313
0	1941	32.299284522529	314
0	1946	32.383472618702	315
0	1948	32.398551719721	316
0	1950	32.45083872273	317
0	1952	32.454217401285	318
0	1954	32.461384939716	319
0	1968	32.866369623596	320
0	1975	32.985913480224	321
0	1977	33.032640736865	322
0	1981	33.09307064405	323
0	1983	33.147556356864	324
0	1988	33.275589777245	325
0	1990	33.280781032463	326
0	1999	33.482058306084	327
0	2001	33.527549490563	328
0	2013	33.898545549753	329